 Gaussian 09, Revision A.02,
 Gaussian 09:  AM64L-G09RevA.02 11-Jun-2009

 ---------
 # opt pm6
 ---------

 ------------------------
 5-Fluorouracil_2W_50_PM6
 ------------------------
 Symbolic Z-matrix:
 Charge =  1 Multiplicity = 1

 SCF Done:  E(RPM6) = -0.637822390946E-01 A.U. after   16 cycles
 SCF Done:  E(RPM6) = -0.810623342177E-01 A.U. after   14 cycles
 SCF Done:  E(RPM6) = -0.850164001222E-01 A.U. after   14 cycles
 SCF Done:  E(RPM6) = -0.870417741996E-01 A.U. after   13 cycles
 SCF Done:  E(RPM6) = -0.905042451517E-01 A.U. after   15 cycles
 SCF Done:  E(RPM6) = -0.928266986696E-01 A.U. after   15 cycles
 SCF Done:  E(RPM6) = -0.955910961382E-01 A.U. after   15 cycles
 SCF Done:  E(RPM6) = -0.966363098293E-01 A.U. after   16 cycles
 SCF Done:  E(RPM6) = -0.973808166965E-01 A.U. after   13 cycles
 SCF Done:  E(RPM6) = -0.984762506082E-01 A.U. after   14 cycles
 SCF Done:  E(RPM6) = -0.112188436387     A.U. after   17 cycles
 SCF Done:  E(RPM6) = -0.112189813272     A.U. after   17 cycles
 SCF Done:  E(RPM6) = -0.112190516716     A.U. after   10 cycles
 SCF Done:  E(RPM6) = -0.112191986074     A.U. after   18 cycles
 SCF Done:  E(RPM6) = -0.112192585062     A.U. after   10 cycles
 SCF Done:  E(RPM6) = -0.112192887763     A.U. after   10 cycles
 SCF Done:  E(RPM6) = -0.112193203387     A.U. after   10 cycles
 SCF Done:  E(RPM6) = -0.112193291214     A.U. after   10 cycles
 SCF Done:  E(RPM6) = -0.112193324245     A.U. after   10 cycles
 SCF Done:  E(RPM6) = -0.112193335362     A.U. after    9 cycles
 Optimization completed.
    -- Stationary point found.

                         Standard orientation:
 ---------------------------------------------------------------------
 Center     Atomic      Atomic             Coordinates (Angstroms)
 Number     Number       Type             X           Y           Z
 ---------------------------------------------------------------------
      1          6           0        1.987591   -0.907006   -0.016765
      2          7           0        2.678680    0.314349    0.006362
      3          6           0        1.917751    1.496316    0.025726
      4          6           0        0.555846    1.403499    0.018837
      5          7           0        0.652055   -1.036502   -0.020903
      6          1           0        2.471250    2.451620    0.045307
      7          1           0        3.707609    0.341713    0.008432
      8          9           0       -0.192509    2.500167    0.035594
      9          6           0       -0.149646    0.114969   -0.009051
     10          8           0       -1.381971   -0.021599   -0.023259
     11          1           0       -2.874039    1.009770    0.235726
     12          8           0        2.813679   -1.960811   -0.033318
     13          1           0        2.301201   -2.849551   -0.058714
     14          8           0       -2.869038   -1.894028    0.006477
     15          1           0       -2.869306   -2.141443    0.967447
     16          1           0       -1.869034   -1.726957   -0.193502
     17          8           0       -3.712568    0.485648    0.001743
     18          1           0       -3.835181    0.671035   -0.964268
     19          1           0       -3.285148   -0.722975    0.015379
 ---------------------------------------------------------------------

 The electronic state is 1-A.
 Alpha  occ. eigenvalues --   -1.70186  -1.41867  -1.33777  -1.32864  -1.32061
 Alpha  occ. eigenvalues --   -1.27933  -1.27392  -1.15171  -1.02887  -1.01609
 Alpha  occ. eigenvalues --   -0.89525  -0.87775  -0.86315  -0.85125  -0.83645
 Alpha  occ. eigenvalues --   -0.83169  -0.78490  -0.76833  -0.75354  -0.75018
 Alpha  occ. eigenvalues --   -0.73675  -0.73054  -0.70254  -0.70018  -0.69647
 Alpha  occ. eigenvalues --   -0.66824  -0.63403  -0.61996  -0.60197  -0.56041
 Alpha  occ. eigenvalues --   -0.54946  -0.51625
 Alpha virt. eigenvalues --   -0.17387  -0.16616  -0.14297  -0.10604  -0.09315
 Alpha virt. eigenvalues --   -0.08888  -0.06593  -0.05457  -0.04867  -0.03199
 Alpha virt. eigenvalues --   -0.02427  -0.00662   0.00419   0.01350   0.02134

 Mulliken atomic charges:
              1
     1  C    0.573340
     2  N   -0.318554
     3  C    0.065921
     4  C   -0.161389
     5  N   -0.610284
     6  H    0.218185
     7  H    0.324248
     8  F   -0.046779
     9  C    0.654492
    10  O   -0.658694
    11  H    0.364463
    12  O   -0.376145
    13  H    0.387598
    14  O   -0.424143
    15  H    0.339121
    16  H    0.376864
    17  O   -0.439099
    18  H    0.340982
    19  H    0.389873
 Sum of Mulliken atomic charges =   1.00000

 Dipole moment (field-independent basis, Debye):
    X=              0.1678    Y=             -1.1398    Z=              0.1288  Tot=              1.1593
 N-N= 4.162040406285D+02 E-N=-6.113636384437D+02  KE=-1.636953706903D+02
 1\1\GINC-MCMAHONLAB\FOpt\RPM6\ZDO\C4H8F1N2O4(1+)\MLS001\07-Feb-2017\0\
 \# opt pm6\\5-Fluorouracil_2W_50_PM6\\1,1\C,1.709067406,-0.3689457566,
 0.7849151581\N,2.4396008531,0.5064341828,-0.0335449639\C,1.7244013922,
 1.2885370564,-0.9572547845\C,0.3666416898,1.1607033532,-1.0172119311\N
 ,0.375928999,-0.5184687255,0.756128321\H,2.3085467953,1.9748940447,-1.
 5952500781\H,3.4641116488,0.5717232565,0.0410363615\F,-0.3389555568,1.
 8836157696,-1.878911941\C,-0.3802580208,0.2356548313,-0.153943162\O,-1
 .6100277923,0.0784837039,-0.1749577095\H,-3.0806696368,0.9021826557,-0
 .8931450808\O,2.493566354,-1.0592327295,1.6223310908\H,1.9532371083,-1

 Normal termination of Gaussian 09 at Tue Feb  7 15:30:09 2017.
